# OOMMF OVF 2.0
# 
# Segment count: 1
# 
# Begin: Segment
# Begin: Header
# 
# Title: Field generated omf file
# Desc: File generated by Field class
# meshunit: m
# meshtype: rectangular
# xbase: 5e-10
# ybase: 5e-10
# zbase: 5e-10
# xnodes: 5
# ynodes: 5
# znodes: 5
# xstepsize: 1e-09
# ystepsize: 1e-09
# zstepsize: 1e-09
# xmin: 0
# ymin: 0
# zmin: 0
# xmax: 5e-09
# ymax: 5e-09
# zmax: 5e-09
# valuedim: 3
# valuelabels: field_x field_y field_z
# valueunits: A/m A/m A/m
# 
# End: Header
# 
# Begin: Data Text
 0.0 8000000.0 0.0
 0.0 8000000.0 0.0
 0.0 8000000.0 0.0
 0.0 8000000.0 0.0
 0.0 8000000.0 0.0
 0.0 8000000.0 0.0
 0.0 8000000.0 0.0
 0.0 8000000.0 0.0
 0.0 8000000.0 0.0
 0.0 8000000.0 0.0
 0.0 8000000.0 0.0
 0.0 8000000.0 0.0
 0.0 8000000.0 0.0
 0.0 8000000.0 0.0
 0.0 8000000.0 0.0
 0.0 8000000.0 0.0
 0.0 8000000.0 0.0
 0.0 8000000.0 0.0
 0.0 8000000.0 0.0
 0.0 8000000.0 0.0
 0.0 8000000.0 0.0
 0.0 8000000.0 0.0
 0.0 8000000.0 0.0
 0.0 8000000.0 0.0
 0.0 8000000.0 0.0
 0.0 8000000.0 0.0
 0.0 8000000.0 0.0
 0.0 8000000.0 0.0
 0.0 8000000.0 0.0
 0.0 8000000.0 0.0
 0.0 8000000.0 0.0
 0.0 8000000.0 0.0
 0.0 8000000.0 0.0
 0.0 8000000.0 0.0
 0.0 8000000.0 0.0
 0.0 8000000.0 0.0
 0.0 8000000.0 0.0
 0.0 8000000.0 0.0
 0.0 8000000.0 0.0
 0.0 8000000.0 0.0
 0.0 8000000.0 0.0
 0.0 8000000.0 0.0
 0.0 8000000.0 0.0
 0.0 8000000.0 0.0
 0.0 8000000.0 0.0
 0.0 8000000.0 0.0
 0.0 8000000.0 0.0
 0.0 8000000.0 0.0
 0.0 8000000.0 0.0
 0.0 8000000.0 0.0
 0.0 8000000.0 0.0
 0.0 8000000.0 0.0
 0.0 8000000.0 0.0
 0.0 8000000.0 0.0
 0.0 8000000.0 0.0
 0.0 8000000.0 0.0
 0.0 8000000.0 0.0
 0.0 8000000.0 0.0
 0.0 8000000.0 0.0
 0.0 8000000.0 0.0
 0.0 8000000.0 0.0
 0.0 8000000.0 0.0
 0.0 8000000.0 0.0
 0.0 8000000.0 0.0
 0.0 8000000.0 0.0
 0.0 8000000.0 0.0
 0.0 8000000.0 0.0
 0.0 8000000.0 0.0
 0.0 8000000.0 0.0
 0.0 8000000.0 0.0
 0.0 8000000.0 0.0
 0.0 8000000.0 0.0
 0.0 8000000.0 0.0
 0.0 8000000.0 0.0
 0.0 8000000.0 0.0
 0.0 8000000.0 0.0
 0.0 8000000.0 0.0
 0.0 8000000.0 0.0
 0.0 8000000.0 0.0
 0.0 8000000.0 0.0
 0.0 8000000.0 0.0
 0.0 8000000.0 0.0
 0.0 8000000.0 0.0
 0.0 8000000.0 0.0
 0.0 8000000.0 0.0
 0.0 8000000.0 0.0
 0.0 8000000.0 0.0
 0.0 8000000.0 0.0
 0.0 8000000.0 0.0
 0.0 8000000.0 0.0
 0.0 8000000.0 0.0
 0.0 8000000.0 0.0
 0.0 8000000.0 0.0
 0.0 8000000.0 0.0
 0.0 8000000.0 0.0
 0.0 8000000.0 0.0
 0.0 8000000.0 0.0
 0.0 8000000.0 0.0
 0.0 8000000.0 0.0
 0.0 8000000.0 0.0
 0.0 8000000.0 0.0
 0.0 8000000.0 0.0
 0.0 8000000.0 0.0
 0.0 8000000.0 0.0
 0.0 8000000.0 0.0
 0.0 8000000.0 0.0
 0.0 8000000.0 0.0
 0.0 8000000.0 0.0
 0.0 8000000.0 0.0
 0.0 8000000.0 0.0
 0.0 8000000.0 0.0
 0.0 8000000.0 0.0
 0.0 8000000.0 0.0
 0.0 8000000.0 0.0
 0.0 8000000.0 0.0
 0.0 8000000.0 0.0
 0.0 8000000.0 0.0
 0.0 8000000.0 0.0
 0.0 8000000.0 0.0
 0.0 8000000.0 0.0
 0.0 8000000.0 0.0
 0.0 8000000.0 0.0
 0.0 8000000.0 0.0
 0.0 8000000.0 0.0
 0.0 8000000.0 0.0
# End: Data Text
# End: Segment
